Program Version,EnergyPlus, Version 9.1.0-08d2e308bb, YMD=2019.06.19 07:52
1,5,Environment Title[],Latitude[deg],Longitude[deg],Time Zone[],Elevation[m]
2,8,Day of Simulation[],Month[],Day of Month[],DST Indicator[1=yes 0=no],Hour[],StartMinute[],EndMinute[],DayType
3,5,Cumulative Day of Simulation[],Month[],Day of Month[],DST Indicator[1=yes 0=no],DayType  ! When Daily Meters Requested
4,2,Cumulative Days of Simulation[],Month[]  ! When Monthly Meters Requested
5,1,Cumulative Days of Simulation[] ! When Run Period Meters Requested
6,1,Calendar Year of Simulation[] ! When Annual Meters Requested
55,9,Electricity:Facility [J] !Monthly [Value,Min,Day,Hour,Minute,Max,Day,Hour,Minute]
67,9,Electricity:Building [J] !Monthly [Value,Min,Day,Hour,Minute,Max,Day,Hour,Minute]
91,9,InteriorLights:Electricity [J] !Monthly [Value,Min,Day,Hour,Minute,Max,Day,Hour,Minute]
1373,9,Electricity:HVAC [J] !Monthly [Value,Min,Day,Hour,Minute,Max,Day,Hour,Minute]
1466,9,Electricity:Plant [J] !Monthly [Value,Min,Day,Hour,Minute,Max,Day,Hour,Minute]
1154,9,Gas:Facility [J] !Monthly [Value,Min,Day,Hour,Minute,Max,Day,Hour,Minute]
1166,9,Gas:Plant [J] !Monthly [Value,Min,Day,Hour,Minute,Max,Day,Hour,Minute]
57,11,Electricity:Facility [J] !RunPeriod [Value,Min,Month,Day,Hour,Minute,Max,Month,Day,Hour,Minute]
69,11,Electricity:Building [J] !RunPeriod [Value,Min,Month,Day,Hour,Minute,Max,Month,Day,Hour,Minute]
93,11,InteriorLights:Electricity [J] !RunPeriod [Value,Min,Month,Day,Hour,Minute,Max,Month,Day,Hour,Minute]
1375,11,Electricity:HVAC [J] !RunPeriod [Value,Min,Month,Day,Hour,Minute,Max,Month,Day,Hour,Minute]
1468,11,Electricity:Plant [J] !RunPeriod [Value,Min,Month,Day,Hour,Minute,Max,Month,Day,Hour,Minute]
1156,11,Gas:Facility [J] !RunPeriod [Value,Min,Month,Day,Hour,Minute,Max,Month,Day,Hour,Minute]
1168,11,Gas:Plant [J] !RunPeriod [Value,Min,Month,Day,Hour,Minute,Max,Month,Day,Hour,Minute]
End of Data Dictionary
1,RUNPERIOD 1,  -0.98, -77.81,  -5.00, 499.00
4,31, 1
55,15904010053.381899,427500.0, 1, 1,15,16283039.43299796,21,11,60
67,11223810000.0,427500.0, 1, 1,15,10800000.0, 1,11,15
91,7121250000.0,337500.0, 1, 1,15,6750000.0, 1,11,15
1154,15682372289.074152,4430923.265929886,19,15,60,27106264.595761688,16, 7,15
1166,15682372289.074152,4430923.265929886,19,15,60,27106264.595761688,16, 7,15
1373,739808411.6472724,0.0, 1, 1,15,727723.5555268816,31,15,60
1466,3940391641.7345998,0.0, 1, 1,15,5295493.709708289,22,15,60
4,59, 2
55,14147282545.524975,427500.0, 1, 1,15,17487941.555949749,22,16,60
67,9883800000.0,427500.0, 1, 1,15,10800000.0, 1,11,15
91,6226200000.0,337500.0, 1, 1,15,6750000.0, 1,11,15
1154,14084463511.726992,4440030.822622577,27,15,60,27222498.264810709,15, 7,15
1166,14084463511.726992,4440030.822622577,27,15,60,27222498.264810709,15, 7,15
1373,649438229.3375741,0.0, 1, 1,15,747958.4562766445,27,15,60
1466,3614044316.187423,0.0, 1, 1,15,6921802.547518599,22,16,60
4,90, 3
55,15461163196.63444,427500.0, 1, 1,15,18101403.409964384,22,11,60
67,10568070000.0,427500.0, 1, 1,15,10800000.0, 1,11,15
91,6589350000.0,337500.0, 1, 1,15,6750000.0, 1,11,15
1154,15372199724.634892,4421800.310698809,17,15,60,22113184.86163371, 5, 7,15
1166,15372199724.634892,4421800.310698809,17,15,60,22113184.86163371, 5, 7,15
1373,684467097.936215,0.0, 1, 1,15,768416.8675941913,22,11,60
1466,4208626098.69823,0.0, 1, 1,15,6532986.542370189,22,11,60
4,120, 4
55,16424291087.61078,427500.0, 1, 1,15,17795050.169646499,11,15,60
67,10777140000.0,427500.0, 1, 1,15,10800000.0, 1,11,15
91,6822900000.0,337500.0, 1, 1,15,6750000.0, 1,11,15
1154,15835276357.637824,4446094.241038074, 8,15,60,24184370.160648448,30, 7,15
1166,15835276357.637824,4446094.241038074, 8,15,60,24184370.160648448,30, 7,15
1373,676285029.8955363,0.0, 1, 1,15,633154.4005696931,12,11,30
1466,4970866057.715237,0.0, 1, 1,15,6890097.623626058,11,16,60
4,151, 5
55,16943981790.641928,427500.0, 1, 1,15,17340980.28911571, 6,11,60
67,11223810000.0,427500.0, 1, 1,15,10800000.0, 1,11,15
91,7121250000.0,337500.0, 1, 1,15,6750000.0, 1,11,15
1154,16528470940.961031,4418755.809673739,20,15,60,27210794.731130404,10, 7,15
1166,16528470940.961031,4418755.809673739,20,15,60,27210794.731130404,10, 7,15
1373,705441026.8004514,0.0, 1, 1,15,642225.8913233966,21,11,60
1466,5014730763.841462,0.0, 1, 1,15,6516138.20697685, 6,14,60
4,181, 6
55,14607892561.053017,427500.0, 3, 1,15,16996113.216717099,19,15,60
67,10121400000.0,427500.0, 3, 1,15,10800000.0, 3,11,15
91,6291000000.0,337500.0, 1, 1,15,6750000.0, 3,11,15
1154,15751816568.05551,4488366.855142627,25,15,60,27601707.217646388, 4, 7,15
1166,15751816568.05551,4488366.855142627,25,15,60,27601707.217646388, 4, 7,15
1373,618565744.4696434,0.0, 1, 1,15,645454.2735409978,12,11,30
1466,3867926816.583373,0.0, 1, 1,15,6074010.604961285,19,15,60
4,212, 7
55,16325609130.394352,427500.0, 1, 1,15,16585366.03515756,29,15,60
67,11223810000.0,427500.0, 1, 1,15,10800000.0, 1,11,15
91,7121250000.0,337500.0, 1, 1,15,6750000.0, 1,11,15
1154,16602058075.235533,4485356.670289682,21,13,60,27896240.742175159,16, 7,15
1166,16602058075.235533,4485356.670289682,21,13,60,27896240.742175159,16, 7,15
1373,708544331.4567705,0.0, 1, 1,15,676041.7660416749,12,11,30
1466,4393254798.937558,0.0, 1, 1,15,5643794.101782838,29,15,60
4,243, 8
55,15568412904.441092,427500.0, 1, 1,15,16591765.426721022, 1,11,60
67,10895940000.0,427500.0, 1, 1,15,10800000.0, 1,11,15
91,6855300000.0,337500.0, 1, 1,15,6750000.0, 1,11,15
1154,16450348389.534417,4482345.1371634,19,15,60,27045985.63772665, 5, 7,15
1166,16450348389.534417,4482345.1371634,19,15,60,27045985.63772665, 5, 7,15
1373,678557610.9040805,0.0, 1, 1,15,674754.9595287322, 1,11,30
1466,3993915293.5370018,0.0, 1, 1,15,5257331.199389827,28,16,60
4,273, 9
55,14881607362.083178,427500.0, 2, 1,15,16622929.268883972, 4,11,60
67,10449270000.0,427500.0, 2, 1,15,10800000.0, 2,11,15
91,6556950000.0,337500.0, 1, 1,15,6750000.0, 2,11,15
1154,15949141790.373665,4497389.521517635, 5,15,60,28299590.28229699,12, 7,15
1166,15949141790.373665,4497389.521517635, 5,15,60,28299590.28229699,12, 7,15
1373,649382120.5078307,0.0, 1, 1,15,628198.7233325092, 2,11,45
1466,3782955241.5753309,0.0, 1, 1,15,5500371.338428733,24,15,60
4,304,10
55,15178742774.984963,427500.0, 1, 1,15,15773647.77381897,11,15,60
67,11223810000.0,427500.0, 1, 1,15,10800000.0, 1,11,15
91,7121250000.0,337500.0, 1, 1,15,6750000.0, 1,11,15
1154,15627053448.914452,4473302.246685997,10,15,60,24815662.40673438, 2, 7,15
1166,15627053448.914452,4473302.246685997,10,15,60,24815662.40673438, 2, 7,15
1373,761892152.6305316,0.0, 1, 1,15,743464.9077866377,11,15,60
1466,3193040622.354428,0.0, 1, 1,15,4680182.86603233,11,15,60
4,334,11
55,14129253170.244294,427500.0, 1, 1,15,15819638.732586058,11,15,60
67,10449270000.0,427500.0, 1, 1,15,10800000.0, 1,11,15
91,6556950000.0,337500.0, 1, 1,15,6750000.0, 1,11,15
1154,15131173994.233725,4479332.235618009,11,15,60,25038634.174564139,15, 7,15
1166,15131173994.233725,4479332.235618009,11,15,60,25038634.174564139,15, 7,15
1373,686021229.3021245,0.0, 1, 1,15,738022.9827218908,13,16,60
1466,2993961940.9421775,0.0, 1, 1,15,4774887.133403057,19,16,60
4,365,12
55,14907966664.586064,427500.0, 2, 1,15,15977745.419408404,19,15,60
67,10895940000.0,427500.0, 2, 1,15,10800000.0, 2,11,15
91,6855300000.0,337500.0, 1, 1,15,6750000.0, 2,11,15
1154,15618250820.754248,4427884.018672531,18,15,60,24399185.996532695,13, 7,15
1166,15618250820.754248,4427884.018672531,18,15,60,24399185.996532695,13, 7,15
1373,713167950.8729521,0.0, 1, 1,15,720135.1224946717,12,15,60
1466,3298858713.713127,0.0, 1, 1,15,5083953.217961174,16,16,60
5,365
57,184480213241.58134,427500.0, 1, 1, 1,15,18101403.409964384, 3,22,11,60
69,128936070000.0,427500.0, 1, 1, 1,15,10800000.0, 1, 1,11,15
93,81238950000.0,337500.0, 1, 1, 1,15,6750000.0, 1, 1,11,15
1156,188632625911.14094,4418755.809673739, 5,20,15,60,28299590.28229699, 9,12, 7,15
1168,188632625911.14094,4418755.809673739, 5,20,15,60,28299590.28229699, 9,12, 7,15
1375,8271570935.761451,0.0, 1, 1, 1,15,768416.8675941913, 3,22,11,60
1468,47272572305.82003,0.0, 1, 1, 1,15,6921802.547518599, 2,22,16,60
End of Data
 Number of Records Written=          91
