Program Version,EnergyPlus, Version 9.1.0-08d2e308bb, YMD=2019.06.18 12:44
1,5,Environment Title[],Latitude[deg],Longitude[deg],Time Zone[],Elevation[m]
2,8,Day of Simulation[],Month[],Day of Month[],DST Indicator[1=yes 0=no],Hour[],StartMinute[],EndMinute[],DayType
3,5,Cumulative Day of Simulation[],Month[],Day of Month[],DST Indicator[1=yes 0=no],DayType  ! When Daily Report Variables Requested
4,2,Cumulative Days of Simulation[],Month[]  ! When Monthly Report Variables Requested
5,1,Cumulative Days of Simulation[] ! When Run Period Report Variables Requested
6,1,Calendar Year of Simulation[] ! When Annual Report Variables Requested
7,1,Environment,Site Outdoor Air Drybulb Temperature [C] !Hourly
8,7,Environment,Site Daylight Saving Time Status [] !Daily [Value,Min,Hour,Minute,Max,Hour,Minute]
9,7,Environment,Site Day Type Index [] !Daily [Value,Min,Hour,Minute,Max,Hour,Minute]
47,1,ZONE ONE,Zone Total Internal Latent Gain Energy [J] !Hourly
48,9,TEST 352A,Other Equipment Total Heating Energy [J] !Monthly [Value,Min,Day,Hour,Minute,Max,Day,Hour,Minute]
49,9,ZONE ONE,Zone Other Equipment Total Heating Energy [J] !Monthly [Value,Min,Day,Hour,Minute,Max,Day,Hour,Minute]
50,9,TEST 352 MINUS,Other Equipment Total Heating Energy [J] !Monthly [Value,Min,Day,Hour,Minute,Max,Day,Hour,Minute]
51,7,67F1E0,Surface Inside Face Temperature [C] !Daily [Value,Min,Hour,Minute,Max,Hour,Minute]
52,7,67F1E0,Surface Outside Face Temperature [C] !Daily [Value,Min,Hour,Minute,Max,Hour,Minute]
53,7,67F1E0,Surface Inside Face Convection Heat Transfer Coefficient [W/m2-K] !Daily [Value,Min,Hour,Minute,Max,Hour,Minute]
54,7,67F1E0,Surface Outside Face Convection Heat Transfer Coefficient [W/m2-K] !Daily [Value,Min,Hour,Minute,Max,Hour,Minute]
55,7,1170EB,Surface Inside Face Temperature [C] !Daily [Value,Min,Hour,Minute,Max,Hour,Minute]
56,7,1170EB,Surface Outside Face Temperature [C] !Daily [Value,Min,Hour,Minute,Max,Hour,Minute]
57,7,1170EB,Surface Inside Face Convection Heat Transfer Coefficient [W/m2-K] !Daily [Value,Min,Hour,Minute,Max,Hour,Minute]
58,7,1170EB,Surface Outside Face Convection Heat Transfer Coefficient [W/m2-K] !Daily [Value,Min,Hour,Minute,Max,Hour,Minute]
59,7,5424C7,Surface Inside Face Temperature [C] !Daily [Value,Min,Hour,Minute,Max,Hour,Minute]
60,7,5424C7,Surface Outside Face Temperature [C] !Daily [Value,Min,Hour,Minute,Max,Hour,Minute]
61,7,5424C7,Surface Inside Face Convection Heat Transfer Coefficient [W/m2-K] !Daily [Value,Min,Hour,Minute,Max,Hour,Minute]
62,7,5424C7,Surface Outside Face Convection Heat Transfer Coefficient [W/m2-K] !Daily [Value,Min,Hour,Minute,Max,Hour,Minute]
63,7,878904,Surface Inside Face Temperature [C] !Daily [Value,Min,Hour,Minute,Max,Hour,Minute]
64,7,878904,Surface Outside Face Temperature [C] !Daily [Value,Min,Hour,Minute,Max,Hour,Minute]
65,7,878904,Surface Inside Face Convection Heat Transfer Coefficient [W/m2-K] !Daily [Value,Min,Hour,Minute,Max,Hour,Minute]
66,7,878904,Surface Outside Face Convection Heat Transfer Coefficient [W/m2-K] !Daily [Value,Min,Hour,Minute,Max,Hour,Minute]
67,7,B3FCF3,Surface Inside Face Temperature [C] !Daily [Value,Min,Hour,Minute,Max,Hour,Minute]
68,7,B3FCF3,Surface Outside Face Temperature [C] !Daily [Value,Min,Hour,Minute,Max,Hour,Minute]
69,7,B3FCF3,Surface Inside Face Convection Heat Transfer Coefficient [W/m2-K] !Daily [Value,Min,Hour,Minute,Max,Hour,Minute]
70,7,B3FCF3,Surface Outside Face Convection Heat Transfer Coefficient [W/m2-K] !Daily [Value,Min,Hour,Minute,Max,Hour,Minute]
71,7,E9E959,Surface Inside Face Temperature [C] !Daily [Value,Min,Hour,Minute,Max,Hour,Minute]
72,7,E9E959,Surface Outside Face Temperature [C] !Daily [Value,Min,Hour,Minute,Max,Hour,Minute]
73,7,E9E959,Surface Inside Face Convection Heat Transfer Coefficient [W/m2-K] !Daily [Value,Min,Hour,Minute,Max,Hour,Minute]
74,7,E9E959,Surface Outside Face Convection Heat Transfer Coefficient [W/m2-K] !Daily [Value,Min,Hour,Minute,Max,Hour,Minute]
75,7,AEA7C2,Surface Inside Face Temperature [C] !Daily [Value,Min,Hour,Minute,Max,Hour,Minute]
76,7,AEA7C2,Surface Outside Face Temperature [C] !Daily [Value,Min,Hour,Minute,Max,Hour,Minute]
77,7,AEA7C2,Surface Inside Face Convection Heat Transfer Coefficient [W/m2-K] !Daily [Value,Min,Hour,Minute,Max,Hour,Minute]
78,7,AEA7C2,Surface Outside Face Convection Heat Transfer Coefficient [W/m2-K] !Daily [Value,Min,Hour,Minute,Max,Hour,Minute]
79,7,800C25,Surface Inside Face Temperature [C] !Daily [Value,Min,Hour,Minute,Max,Hour,Minute]
80,7,800C25,Surface Outside Face Temperature [C] !Daily [Value,Min,Hour,Minute,Max,Hour,Minute]
81,7,800C25,Surface Inside Face Convection Heat Transfer Coefficient [W/m2-K] !Daily [Value,Min,Hour,Minute,Max,Hour,Minute]
82,7,800C25,Surface Outside Face Convection Heat Transfer Coefficient [W/m2-K] !Daily [Value,Min,Hour,Minute,Max,Hour,Minute]
83,7,52C6BE,Surface Inside Face Temperature [C] !Daily [Value,Min,Hour,Minute,Max,Hour,Minute]
84,7,52C6BE,Surface Outside Face Temperature [C] !Daily [Value,Min,Hour,Minute,Max,Hour,Minute]
85,7,52C6BE,Surface Inside Face Convection Heat Transfer Coefficient [W/m2-K] !Daily [Value,Min,Hour,Minute,Max,Hour,Minute]
86,7,6401E7,Surface Inside Face Temperature [C] !Daily [Value,Min,Hour,Minute,Max,Hour,Minute]
87,7,6401E7,Surface Outside Face Temperature [C] !Daily [Value,Min,Hour,Minute,Max,Hour,Minute]
88,7,6401E7,Surface Inside Face Convection Heat Transfer Coefficient [W/m2-K] !Daily [Value,Min,Hour,Minute,Max,Hour,Minute]
89,7,6401E7,Surface Outside Face Convection Heat Transfer Coefficient [W/m2-K] !Daily [Value,Min,Hour,Minute,Max,Hour,Minute]
90,7,234D00,Surface Inside Face Temperature [C] !Daily [Value,Min,Hour,Minute,Max,Hour,Minute]
91,7,234D00,Surface Outside Face Temperature [C] !Daily [Value,Min,Hour,Minute,Max,Hour,Minute]
92,7,234D00,Surface Inside Face Convection Heat Transfer Coefficient [W/m2-K] !Daily [Value,Min,Hour,Minute,Max,Hour,Minute]
93,7,234D00,Surface Outside Face Convection Heat Transfer Coefficient [W/m2-K] !Daily [Value,Min,Hour,Minute,Max,Hour,Minute]
94,7,A53C53,Surface Inside Face Temperature [C] !Daily [Value,Min,Hour,Minute,Max,Hour,Minute]
95,7,A53C53,Surface Outside Face Temperature [C] !Daily [Value,Min,Hour,Minute,Max,Hour,Minute]
96,7,A53C53,Surface Inside Face Convection Heat Transfer Coefficient [W/m2-K] !Daily [Value,Min,Hour,Minute,Max,Hour,Minute]
97,7,A53C53,Surface Outside Face Convection Heat Transfer Coefficient [W/m2-K] !Daily [Value,Min,Hour,Minute,Max,Hour,Minute]
98,7,714A69,Surface Inside Face Temperature [C] !Daily [Value,Min,Hour,Minute,Max,Hour,Minute]
99,7,714A69,Surface Outside Face Temperature [C] !Daily [Value,Min,Hour,Minute,Max,Hour,Minute]
100,7,714A69,Surface Inside Face Convection Heat Transfer Coefficient [W/m2-K] !Daily [Value,Min,Hour,Minute,Max,Hour,Minute]
101,7,714A69,Surface Outside Face Convection Heat Transfer Coefficient [W/m2-K] !Daily [Value,Min,Hour,Minute,Max,Hour,Minute]
102,1,ZONE ONE,Zone Mean Radiant Temperature [C] !Hourly
103,1,ZONE ONE,Zone Mean Air Temperature [C] !Hourly
104,1,ZONE ONE,Zone Air Heat Balance Surface Convection Rate [W] !Hourly
105,1,ZONE ONE,Zone Air Heat Balance Air Energy Storage Rate [W] !Hourly
End of Data Dictionary
1,DENVER CENTENNIAL  GOLDEN   N ANN HTG 99% CONDNS DB,  -0.98, -77.81,  -5.00, 499.00
2,1,12,21, 0, 1, 0.00,60.00,WinterDesignDay
7,-15.5
47,0.0
102,8.711544795476508
103,9.410789726672796
104,1.5276668818842154e-12
105,-1.5133911514960595e-13
2,1,12,21, 0, 2, 0.00,60.00,WinterDesignDay
7,-15.5
47,0.0
102,8.711544795476508
103,9.410789726672798
104,-1.0302869668521453e-13
105,7.566955757480642e-14
2,1,12,21, 0, 3, 0.00,60.00,WinterDesignDay
7,-15.5
47,0.0
102,8.711544795476508
103,9.410789726672796
104,2.0250467969162855e-12
105,-1.5133911514960734e-13
2,1,12,21, 0, 4, 0.00,60.00,WinterDesignDay
7,-15.5
47,0.0
102,8.711544795476508
103,9.410789726672796
104,7.958078640513122e-13
105,7.566955757480642e-14
2,1,12,21, 0, 5, 0.00,60.00,WinterDesignDay
7,-15.5
47,0.0
102,8.71154479547651
103,9.410789726672798
104,2.842170943040401e-14
105,2.751546837410889e-27
2,1,12,21, 0, 6, 0.00,60.00,WinterDesignDay
7,-15.5
47,0.0
102,8.711544795476508
103,9.410789726672798
104,-3.552713678800501e-13
105,7.56695575748078e-14
2,1,12,21, 0, 7, 0.00,60.00,WinterDesignDay
7,-15.5
47,0.0
102,8.711544795476508
103,9.410789726672796
104,2.312816604899126e-12
105,-1.262177448353619e-29
2,1,12,21, 0, 8, 0.00,60.00,WinterDesignDay
7,-15.5
47,0.0
102,8.71154479547651
103,9.410789726672798
104,-1.3180567748349858e-12
105,2.751546837410889e-27
2,1,12,21, 0, 9, 0.00,60.00,WinterDesignDay
7,-15.5
47,0.0
102,8.71154479547651
103,9.410789726672798
104,6.075140390748857e-13
105,1.3757734187054446e-27
2,1,12,21, 0,10, 0.00,60.00,WinterDesignDay
7,-15.5
47,0.0
102,8.711544795476508
103,9.410789726672796
104,-3.090860900556436e-13
105,7.566955757480642e-14
2,1,12,21, 0,11, 0.00,60.00,WinterDesignDay
7,-15.5
47,0.0
102,8.71154479547651
103,9.410789726672796
104,9.308109838457312e-13
105,2.751546837410889e-27
2,1,12,21, 0,12, 0.00,60.00,WinterDesignDay
7,-15.5
47,0.0
102,8.71154479547651
103,9.410789726672798
104,-1.7053025658242405e-13
105,2.751546837410889e-27
2,1,12,21, 0,13, 0.00,60.00,WinterDesignDay
7,-15.5
47,0.0
102,8.711544795476512
103,9.410789726672798
104,4.867217739956686e-13
105,-1.5133911514960734e-13
2,1,12,21, 0,14, 0.00,60.00,WinterDesignDay
7,-15.5
47,0.0
102,8.71154479547651
103,9.4107897266728
104,-4.831690603168681e-13
105,1.5133911514961009e-13
2,1,12,21, 0,15, 0.00,60.00,WinterDesignDay
7,-15.5
47,0.0
102,8.71154479547651
103,9.410789726672796
104,4.298783551348606e-13
105,-1.5133911514960459e-13
2,1,12,21, 0,16, 0.00,60.00,WinterDesignDay
7,-15.5
47,0.0
102,8.71154479547651
103,9.4107897266728
104,-9.663381206337363e-13
105,1.5133911514961009e-13
2,1,12,21, 0,17, 0.00,60.00,WinterDesignDay
7,-15.5
47,0.0
102,8.711544795476512
103,9.4107897266728
104,-1.77280412572145e-12
105,0.0
2,1,12,21, 0,18, 0.00,60.00,WinterDesignDay
7,-15.5
47,0.0
102,8.711544795476512
103,9.4107897266728
104,-8.135714324453147e-13
105,2.751546837410889e-27
2,1,12,21, 0,19, 0.00,60.00,WinterDesignDay
7,-15.5
47,0.0
102,8.71154479547651
103,9.410789726672798
104,2.4868995751603509e-13
105,-1.5133911514960734e-13
2,1,12,21, 0,20, 0.00,60.00,WinterDesignDay
7,-15.5
47,0.0
102,8.71154479547651
103,9.410789726672798
104,-8.952838470577262e-13
105,7.566955757480504e-14
2,1,12,21, 0,21, 0.00,60.00,WinterDesignDay
7,-15.5
47,0.0
102,8.71154479547651
103,9.410789726672796
104,4.938272013532696e-13
105,7.566955757480642e-14
2,1,12,21, 0,22, 0.00,60.00,WinterDesignDay
7,-15.5
47,0.0
102,8.71154479547651
103,9.410789726672798
104,-1.1617373729677638e-12
105,2.751546837410889e-27
2,1,12,21, 0,23, 0.00,60.00,WinterDesignDay
7,-15.5
47,0.0
102,8.71154479547651
103,9.410789726672798
104,-1.0516032489249483e-12
105,-7.566955757480229e-14
2,1,12,21, 0,24, 0.00,60.00,WinterDesignDay
7,-15.5
47,0.0
102,8.71154479547651
103,9.410789726672798
104,3.694822225952521e-13
105,2.751546837410889e-27
3,1,12,21, 0,WinterDesignDay
51,6.959424792076418,6.959424792076408, 1,45,6.959424792076423, 3,15
52,-15.722922036111582,-15.722922036111582, 1,45,-15.722922036111579, 1,15
53,1.5873346315944488,1.587334631594447, 3,30,1.5873346315944508,13,30
54,13.61766654510859,13.617666545108584, 1,15,13.617666545108584, 1,15
55,6.957102540822375,6.957102540822365, 3,45,6.957102540822381, 6,15
56,-15.33455589818118,-15.33455589818118, 1,15,-15.33455589818118, 1,15
57,1.3757028642623047,1.3757028642623027, 2,15,1.3757028642623058, 1,15
58,10.912045917533398,10.912045917533403, 1,15,10.912045917533403, 1,15
59,6.960233742259359,6.960233742259347, 7,45,6.960233742259365,24,30
60,-15.726545401046096,-15.726545401046092, 1,15,-15.726545401046092, 1,15
61,1.5895008269596787,1.5895008269596767, 7,45,1.589500826959681, 1,15
62,13.615181864773014,13.61518186477301, 1,15,13.61518186477301, 1,15
63,6.96381839223196,6.9638183922319529, 1,60,6.963818392231972, 2,45
64,-15.758947704691443,-15.75894770469145, 1,15,-15.75894770469145, 1,15
65,1.6097253715399338,1.6097253715399316, 2,60,1.6097253715399363,13,15
66,13.594582900615201,13.594582900615209, 1,15,13.594582900615209, 1,15
67,6.974767382661498,6.974767382661488, 6,60,6.9747673826615099, 1,60
68,-15.387507106034187,-15.387507106034182, 1,15,-15.387507106034182, 1,15
69,1.3900545078795899,1.3900545078795879, 1,45,1.390054507879592, 7,15
70,13.187057038497493,13.187057038497498, 1,15,13.187057038497498, 1,15
71,6.962610221442186,6.96261022144217, 8,30,6.962610221442193, 2,45
72,-15.443718049680362,-15.443718049680366, 1,15,-15.443718049680366, 1,15
73,1.42070388928804,1.420703889288038, 2,60,1.420703889288043, 8,45
74,13.452947981547196,13.45294798154719, 1,15,13.45294798154719, 1,15
75,6.953298206535778,6.953298206535772, 3,45,6.9532982065357908, 8,15
76,-15.71065028694665,-15.710650286946655, 1,15,-15.710650286946655, 1,15
77,1.5647586427058827,1.5647586427058809, 1,30,1.5647586427058849,23,45
78,11.018980407884435,11.018980407884433, 1,15,11.018980407884433, 1,15
79,6.9711118911339169,6.971111891133908, 2,15,6.97111189113393,14,30
80,-15.26803802974552,-15.268038029745516, 1,15,-15.268038029745516, 1,15
81,1.3445881376446567,1.3445881376446547,15,30,1.3445881376446594, 2,30
82,10.760162669721077,10.76016266972108, 1,15,10.76016266972108, 1,15
83,15.046906604292547,15.046906604292549, 1,45,15.04690660429255, 1,15
84,18.0,18.0, 1,15,18.0, 1,15
85,2.705087042438521,2.70508704243852, 1,15,2.7050870424385216, 1,30
86,7.796441636414927,7.7964416364149209,23,15,7.796441636414938, 8,60
87,-17.971416995920664,-17.971416995920664, 1,15,-17.971416995920664, 1,15
88,1.7354962579890563,1.7354962579890539, 5,60,1.7354962579890608,23,30
89,13.893025078813876,13.893025078813876, 1,15,13.893025078813876, 1,15
90,7.778014800511898,7.778014800511898, 1,45,7.778014800511906,13,60
91,-18.43094676162208,-18.43094676162209, 1,15,-18.43094676162209, 1,15
92,1.7420745158419256,1.7420745158419227,14,15,1.7420745158419265, 2,30
93,11.079799152714024,11.079799152714017, 1,15,11.079799152714017, 1,15
94,7.672884230070346,7.672884230070344, 1,15,7.672884230070355,12,15
95,-18.16473917531408,-18.16473917531407, 1,15,-18.16473917531407, 1,15
96,1.7468187899007528,1.7468187899007504,12,30,1.7468187899007548, 1,15
97,10.681536647477877,10.681536647477876, 1,15,10.681536647477876, 1,15
98,7.68603033324962,7.686030333249619, 4,30,7.686030333249628,13,45
99,-17.937395012111595,-17.93739501211159, 1,15,-17.93739501211159, 1,15
100,1.761569594628045,1.7615695946280433,13,60,1.7615695946280468, 4,45
101,13.25118877189306,13.251188771893068, 1,15,13.251188771893068, 1,15
8,0.0,0, 1,15,0, 1,15
9,10.,10, 1,15,10, 1,15
4,1,12
48,30412800.0,316800.0,21, 1,15,316800.0,21, 1,15
49,0.0,0.0,21, 1,15,0.0,21, 1,15
50,-30412800.0,-316800.0,21, 1,15,-316800.0,21, 1,15
1,DENVER CENTENNIAL  GOLDEN   N ANN CLG 1% CONDNS DB=>MWB,  -0.98, -77.81,  -5.00, 499.00
2,1, 7,21, 0, 1, 0.00,60.00,SummerDesignDay
7,18.966
47,0.0
102,18.746427483386399
103,18.786860536877027
104,-14.985283618869609
105,-15.199409654325852
2,1, 7,21, 0, 2, 0.00,60.00,SummerDesignDay
7,18.244
47,0.0
102,18.40409695979562
103,18.442880774745558
104,-13.329632875252774
105,-13.564428102150324
2,1, 7,21, 0, 3, 0.00,60.00,SummerDesignDay
7,17.731
47,0.0
102,18.11677358879497
103,18.143864381198058
104,-11.493488375734298
105,-11.684996265361754
2,1, 7,21, 0, 4, 0.00,60.00,SummerDesignDay
7,17.275000000000003
47,0.0
102,17.87887466695338
103,17.90029813749495
104,-8.488496462631956
105,-8.9146117076639
2,1, 7,21, 0, 5, 0.00,60.00,SummerDesignDay
7,16.913999999999999
47,0.0
102,17.681458955425169
103,17.715207646241987
104,-6.955647976503464
105,-7.120490803452149
2,1, 7,21, 0, 6, 0.00,60.00,SummerDesignDay
7,16.990000000000003
47,0.0
102,17.53165344495088
103,17.571761183322459
104,-4.689773360197508
105,-5.054666086523404
2,1, 7,21, 0, 7, 0.00,60.00,SummerDesignDay
7,17.769
47,0.0
102,17.490347425516164
103,17.51443303856864
104,1.7223531554952163
105,0.2527276029626766
2,1, 7,21, 0, 8, 0.00,60.00,SummerDesignDay
7,19.783
47,0.0
102,17.85707721671211
103,17.84650357239173
104,26.501107958470997
105,23.204142403769479
2,1, 7,21, 0, 9, 0.00,60.00,SummerDesignDay
7,22.557
47,0.0
102,18.612003868180446
103,18.619473039330008
104,35.40837839562732
105,34.996385581266299
2,1, 7,21, 0,10, 0.00,60.00,SummerDesignDay
7,25.255000000000004
47,0.0
102,19.541249597605427
103,19.505819693341097
104,36.63202161605912
105,36.726662249710148
2,1, 7,21, 0,11, 0.00,60.00,SummerDesignDay
7,27.649
47,0.0
102,20.473943733768324
103,20.386355917547517
104,35.307669928275249
105,35.61079624520721
2,1, 7,21, 0,12, 0.00,60.00,SummerDesignDay
7,29.454
47,0.0
102,21.3201571495858
103,21.206725173001069
104,31.811632117207254
105,32.28942664652759
2,1, 7,21, 0,13, 0.00,60.00,SummerDesignDay
7,30.784
47,0.0
102,22.043871481907403
103,21.92015835697095
104,26.483122395060059
105,27.13608800495093
2,1, 7,21, 0,14, 0.00,60.00,SummerDesignDay
7,31.715
47,0.0
102,22.6241876379028
103,22.50087205276849
104,20.866698752262086
105,21.557925454364449
2,1, 7,21, 0,15, 0.00,60.00,SummerDesignDay
7,32.0
47,0.0
102,23.055788115255795
103,22.945665394562295
104,15.102021878919306
105,15.920614189602892
2,1, 7,21, 0,16, 0.00,60.00,SummerDesignDay
7,31.43
47,0.0
102,23.2941748532254
103,23.213404657176146
104,6.061912125367951
105,7.381610053927588
2,1, 7,21, 0,17, 0.00,60.00,SummerDesignDay
7,30.328
47,0.0
102,23.265539005237039
103,23.22503813942137
104,-5.35039140132537
105,-3.8483007993957485
2,1, 7,21, 0,18, 0.00,60.00,SummerDesignDay
7,28.922
47,0.0
102,22.924455455697954
103,22.9249650122809
104,-20.22841754033597
105,-17.95106100760166
2,1, 7,21, 0,19, 0.00,60.00,SummerDesignDay
7,26.927
47,0.0
102,22.192841650694669
103,22.203368388720255
104,-35.10795559997406
105,-34.53191413303821
2,1, 7,21, 0,20, 0.00,60.00,SummerDesignDay
7,25.027
47,0.0
102,21.374382784023355
103,21.387776509986034
104,-30.77328234579805
105,-31.453556027304168
2,1, 7,21, 0,21, 0.00,60.00,SummerDesignDay
7,23.544999999999999
47,0.0
102,20.67834332533314
103,20.696945970471839
104,-25.900707526805005
105,-26.48737715817471
2,1, 7,21, 0,22, 0.00,60.00,SummerDesignDay
7,22.177
47,0.0
102,20.09035840766861
103,20.113706760083688
104,-22.218845101951687
105,-22.61069676770341
2,1, 7,21, 0,23, 0.00,60.00,SummerDesignDay
7,20.999000000000004
47,0.0
102,19.579955677746818
103,19.608022205370295
104,-19.339697878700986
105,-19.718052063128807
2,1, 7,21, 0,24, 0.00,60.00,SummerDesignDay
7,19.935000000000004
47,0.0
102,19.137464189323045
103,19.171047775543625
104,-16.782311885762377
105,-17.063091298600339
3,1, 7,21, 0,SummerDesignDay
51,20.61754115174274,17.412928670844907, 7,15,23.935732257366586,16,60
52,26.15594171547028,16.033041793885997, 5,60,38.48321916782466,10,15
53,0.9499567628819182,0.18149017247225369, 4,30,1.3866447488681538,10,60
54,20.975986832930219,20.35861249393343, 9,30,21.41160823610309,18,60
55,20.55225573477816,17.438936696748859, 7,15,23.937839788081758,16,60
56,25.404630798807898,16.33204222696886, 5,60,33.45453365682089,14,60
57,0.9391854859511915,0.10614507516613418, 4,60,1.266346405450715, 9,60
58,20.628503047455348,20.077862682920406, 8,60,21.006017037089334,19,45
59,20.562041864576398,17.385121836590867, 7,30,24.814676547746087,17,30
60,25.55901327529507,15.803314496358619, 5,60,44.92332161701578,17,15
61,0.8797936426966374,0.19778616287184443, 3,45,1.568530632675035,18,15
62,14.743250056361477,14.29459620652555,17,45,15.239484287826978, 9,45
63,20.60370751674144,17.40363564258068, 7,30,24.932258294330127,17,30
64,26.127307083288036,16.002331799252454, 5,60,46.38797241453221,16,60
65,0.8920079979735132,0.14140898699269476, 4,15,1.590878991124744,17,60
66,20.972666873214274,20.328901958758704,17,45,21.458576931420159, 9,60
67,20.509604958426239,17.434032868713588, 7,30,24.10058790624336,17,15
68,24.89506905218839,16.303242582615576, 5,60,34.81926163776988,16,15
69,0.8915489807088096,0.16763893389316848, 4,60,1.3177370058404845,18,30
70,20.254242193307154,19.974719993430875,18,15,20.681097861720393,19,60
71,20.54949356339503,17.426435916569099, 7,30,24.634797445399224,17,45
72,25.475811867416828,16.262657495479336, 5,60,42.851093215723938,17,30
73,0.8777496910279452,0.2084567583304769, 4,60,1.5522439264987016,18,30
74,20.597306943918548,20.0150897692468,17,60,21.094513087426028,19,60
75,20.5618153168122,17.395988536606067, 7,15,23.956523387450568,16,60
76,25.417745829497805,15.849288735831525, 5,60,35.433468164990049, 9,45
77,0.9230138017185666,0.1, 3,45,1.3040286572989495,10,15
78,14.748862070414424,14.3251667345388, 9,15,15.141010253894923,18,45
79,20.455668348827144,17.424993327724349, 7,30,23.957903556174555,16,60
80,24.191106467257844,16.257486965016868, 5,60,33.952649531776938,14,60
81,0.839403236109073,0.20469200601454769, 4,60,1.247251226393332,16,15
82,14.505213412522233,14.343236775223174, 7,30,14.89853598709882,19,30
83,18.639985462770978,17.864875506730099, 7,45,19.569665274891244,17,45
84,18.0,18.0, 1,15,18.0, 1,15
85,0.889966602072915,0.2150746774160617, 3,60,1.1764896650259407,17,15
86,20.50374755490229,17.363355195587244, 7,30,24.19046293419731,16,45
87,28.119740114444246,14.401563900560559, 5,60,49.06351789810401,13,60
88,0.6141375010047802,0.10980323589886713, 1,60,0.8380986123812855,15,15
89,21.42357709585015,20.778718306940083,13,30,22.068914502890228,19,15
90,20.354699754806889,17.327927376231857, 7,30,23.91503409911827,16,45
91,24.769728588221125,13.635420458589217, 5,60,43.21248886547627,13,60
92,0.6275464070621021,0.1, 1,15,0.9450963635400764, 9,15
93,14.99343264342272,14.5454798573107,13,30,15.390238634127615,18,15
94,20.339703265274595,17.32245700316206, 7,30,23.874256842668598,16,45
95,23.941869671111467,13.874789548983783, 5,60,40.16955711722997,13,60
96,0.6463970312891599,0.1,10,60,0.9815834967228303, 9,30
97,14.500604615308904,14.090911296440624,13,30,14.96643741658698,17,45
98,20.56575313857448,17.351437548052038, 7,30,24.341553188263285,16,45
99,28.45950697621004,14.421128599465787, 5,60,49.85320569163774,13,60
100,0.6458344819464469,0.1, 2,15,0.8956077547758636,15,15
101,20.440539045665934,19.827085115472359,13,30,21.146461822209184,19,15
8,0.0,0, 1,15,0, 1,15
9,9.,9, 1,15,9, 1,15
4,1, 7
48,30412800.0,316800.0,21, 1,15,316800.0,21, 1,15
49,0.0,0.0,21, 1,15,0.0,21, 1,15
50,-30412800.0,-316800.0,21, 1,15,-316800.0,21, 1,15
1,RUNPERIOD 1,  -0.98, -77.81,  -5.00, 499.00
2,1, 1, 1, 0, 1, 0.00,60.00,Tuesday
7,25.025
47,0.0
102,19.89910901546451
103,19.908181530792697
104,-5.185851980187403
105,-4.942487291050508
2,1, 1, 1, 0, 2, 0.00,60.00,Tuesday
7,24.687499999999998
47,0.0
102,19.755062304597069
103,19.764699267830165
104,-6.24183249966616
105,-6.247005990738582
2,1, 1, 1, 0, 3, 0.00,60.00,Tuesday
7,24.675000000000006
47,0.0
102,19.59493925491841
103,19.613519261079085
104,-6.200324600641122
105,-6.220696745686988
2,1, 1, 1, 0, 4, 0.00,60.00,Tuesday
7,24.5375
47,0.0
102,19.44827654380207
103,19.47382695386303
104,-5.075126906086991
105,-5.300864549947438
2,1, 1, 1, 0, 5, 0.00,60.00,Tuesday
7,24.4375
47,0.0
102,19.34739375297449
103,19.373477702669484
104,-3.3130505556133369
105,-3.4933468152806137
2,1, 1, 1, 0, 6, 0.00,60.00,Tuesday
7,24.4
47,0.0
102,19.287276138063864
103,19.31071036926683
104,-1.7618129275014545
105,-1.9961206225858633
2,1, 1, 1, 0, 7, 0.00,60.00,Tuesday
7,24.4625
47,0.0
102,19.274668091362196
103,19.292496695615897
104,0.3676634377336918
105,0.05257197425523946
2,1, 1, 1, 0, 8, 0.00,60.00,Tuesday
7,24.8125
47,0.0
102,19.357290948496617
103,19.36214117121131
104,6.142573295749351
105,5.203915701837854
2,1, 1, 1, 0, 9, 0.00,60.00,Tuesday
7,25.25
47,0.0
102,19.601635384196539
103,19.58695363578557
104,12.262061037556336
105,11.531372435681075
2,1, 1, 1, 0,10, 0.00,60.00,Tuesday
7,25.7125
47,0.0
102,19.984182215002176
103,19.94979083150111
104,17.066572659313125
105,16.641016087154527
2,1, 1, 1, 0,11, 0.00,60.00,Tuesday
7,26.525
47,0.0
102,20.51441679828515
103,20.451598115837617
104,26.381854989127569
105,24.541175716655414
2,1, 1, 1, 0,12, 0.00,60.00,Tuesday
7,27.65
47,0.0
102,21.37339299987196
103,21.266789770647074
104,39.22204803583968
105,38.16229079703418
2,1, 1, 1, 0,13, 0.00,60.00,Tuesday
7,28.725
47,0.0
102,22.312596914522133
103,22.1856560783217
104,32.564087586202408
105,34.50049657687809
2,1, 1, 1, 0,14, 0.00,60.00,Tuesday
7,29.1625
47,0.0
102,22.78813192582747
103,22.68812791625581
104,6.789155177700404
105,10.38283922428718
2,1, 1, 1, 0,15, 0.00,60.00,Tuesday
7,29.012499999999997
47,0.0
102,22.67071015607263
103,22.61144791509861
104,-10.813676884950244
105,-9.301935387461138
2,1, 1, 1, 0,16, 0.00,60.00,Tuesday
7,28.525
47,0.0
102,22.236601202421335
103,22.21038608122288
104,-20.72030777991249
105,-19.963793021780555
2,1, 1, 1, 0,17, 0.00,60.00,Tuesday
7,28.049999999999998
47,0.0
102,21.75282270229052
103,21.73886172218733
104,-16.125114340859484
105,-17.1172872075024
2,1, 1, 1, 0,18, 0.00,60.00,Tuesday
7,27.5875
47,0.0
102,21.38563128742603
103,21.37747804538032
104,-14.231557161442236
105,-14.262774287493836
2,1, 1, 1, 0,19, 0.00,60.00,Tuesday
7,27.0875
47,0.0
102,21.038924466085346
103,21.03716613017581
104,-13.978566160246724
105,-13.945664102564774
2,1, 1, 1, 0,20, 0.00,60.00,Tuesday
7,26.8375
47,0.0
102,20.713287817255869
103,20.71616291620937
104,-11.66309342026315
105,-12.181245070815248
2,1, 1, 1, 0,21, 0.00,60.00,Tuesday
7,26.6125
47,0.0
102,20.471550335991389
103,20.47557451309897
104,-8.294546752943303
105,-8.652322963157366
2,1, 1, 1, 0,22, 0.00,60.00,Tuesday
7,26.374999999999998
47,0.0
102,20.29612366009703
103,20.300046269326456
104,-6.465432425909356
105,-6.5947372740013379
2,1, 1, 1, 0,23, 0.00,60.00,Tuesday
7,26.175000000000006
47,0.0
102,20.144769037191379
103,20.15097829326222
104,-5.811970834919791
105,-5.902947221368729
2,1, 1, 1, 0,24, 0.00,60.00,Tuesday
7,25.975
47,0.0
102,20.013662782429074
103,20.02174251071231
104,-4.765392149368987
105,-4.91724380736938
3,1, 1, 1, 0,Tuesday
51,21.040350667000387,19.58956425345369, 7,15,23.537430815274229,14,60
52,26.877076686479943,22.949441507822987, 3,60,35.36808551664576,13,30
53,1.053258659411344,0.8942280181690562, 7,30,1.2517615026079936,15,45
54,4.557252849416431,1.6070979139368858, 2,60,9.720474143538454,10,60
55,21.02833029941623,19.608119562747317, 7,30,23.471674329815838,14,60
56,26.896037514080147,23.33008153131412, 5,60,34.60551611745807,13,30
57,1.0843359232139747,0.9455607967101589, 7,30,1.2624475391160397,15,60
58,4.204019814683755,1.3724570516111148, 1,15,9.649969242608047,10,60
59,21.042920848031796,19.584219750324288, 7,30,23.6310243591614,14,60
60,26.916981471063506,22.84069033406495, 5,60,36.34630965021663,13,60
61,1.0528375194052813,0.887982566275028, 6,60,1.2930368350097628,15,15
62,4.273238825023893,1.5077113346051752, 1,15,11.595509903119178,10,60
63,21.038460757977224,19.589441962321119, 7,30,23.55728624526256,14,60
64,26.84774248882374,22.823437917993716, 5,30,35.515817122340049,13,30
65,1.0480911156750468,0.8895653661022404, 6,30,1.2596458843004182,15,45
66,4.548728438738724,1.804653858266798,23,60,11.585302725106266,10,60
67,21.0242079467025,19.60757459948305, 7,30,23.474329946928813,14,60
68,26.898388716928236,23.363860686017067, 5,60,34.72795064554704,13,30
69,1.0775760898857734,0.941831639206426, 7,30,1.2588039061109658,15,45
70,4.458260095597117,1.7068692829704587,23,60,9.541200459719457,10,60
71,21.028141184410769,19.60569549260305, 7,30,23.493039644297519,14,60
72,26.88154998589894,23.210837176474184, 5,60,34.91732239948215,13,30
73,1.074194372710621,0.9327876503347389, 6,45,1.2653184151184829,15,45
74,4.236515495865852,1.406291852268098, 1,15,11.404078008265408,10,60
75,21.050623910784294,19.58790794131314, 7,30,23.5343764525593,14,60
76,27.025972814460159,22.897013616213508, 5,60,36.98415986742971,12,30
77,1.0622268558935882,0.8955092163608837, 7,15,1.2708992800240822,12,60
78,4.26725432626341,1.4952513124321645, 1,15,11.571074396784475,10,60
79,21.021239835392124,19.60828961850175, 7,30,23.4592295203525,14,60
80,26.875237983387156,23.387099066775329, 5,60,34.602485624887709,13,30
81,1.085290144971034,0.9509608201750675, 7,30,1.262512497927281,15,60
82,4.088315437265575,1.344515305502546, 1,15,11.246851823712407,10,60
83,18.745465732956459,18.366400679705597, 7,60,19.375619614568597,15,30
84,18.0,18.0, 1,15,18.0, 1,15
85,0.9049035171657973,0.7390994161258994, 7,30,1.1427747178240023,14,60
86,20.817679383282667,19.337814740057327, 7,15,23.487608699540947,14,45
87,26.743986356386455,20.175619262069906, 4,15,44.6581896497477,13,30
88,0.49828166922184527,0.2798327936911933, 6,30,0.7566450385930955,14,30
89,4.686926337066834,1.6507267962955364,23,60,9.82590784812837,10,60
90,20.843902295583069,19.32140432146251, 7,15,23.703128546976559,14,30
91,27.372112692939607,19.93884473462167, 4,30,51.71412176264445,13,30
92,0.4989192006984,0.2316445593568402, 6,30,0.8373041680685367,14,15
93,4.39944850828377,1.3302837346440449,24,60,11.773052284490662,10,60
94,20.8960944056238,19.348746903016396, 7,15,23.82271160027026,14,30
95,27.622607362899278,20.370263364615416, 4,30,51.848678087735809,13,30
96,0.5667014734735428,0.3243019399303712, 6,45,0.914363422921159,14,15
97,4.221169064177216,1.3455727472547743,24,60,11.194552935778193,10,60